data_nh30r
_audit_creation_method            
 'Olex2: Aug  3 2017 15:22:34 MSC:191025019 on WIN64, Python: 2.7.5, wxWidgets: 3.1.0 for OlexSys'
_chemical_name_common              '?'
_chemical_name_systematic          '?'
_chemical_formula_moiety           'H3 N1'
_chemical_formula_sum              'H9 N'
_chemical_formula_weight           7.69
_chemical_melting_point            ?
_space_group_crystal_system        'cubic'
_space_group_IT_number             198
_space_group_name_H-M_alt          'P 21 3'
_space_group_name_Hall             'P 2ac 2ab 3'
loop_
  _space_group_symop_id
  _space_group_symop_operation_xyz
 1 +X,+Y,+Z
 2 +Z,+X,+Y
 3 +Y,+Z,+X
 4 1/2-Y,-Z,1/2+X
 5 1/2+Z,1/2-X,-Y
 6 -Y,1/2+Z,1/2-X
 7 1/2-Z,-X,1/2+Y
 8 -Z,1/2+X,1/2-Y
 9 1/2+Y,1/2-Z,-X
 10 1/2-X,-Y,1/2+Z
 11 1/2+X,1/2-Y,-Z
 12 -X,1/2+Y,1/2-Z

_cell_length_a                     5.1305(8)
_cell_length_b                     5.1305(8)
_cell_length_c                     5.1305(8)
_cell_angle_alpha                  90
_cell_angle_beta                   90
_cell_angle_gamma                  90
_cell_volume                       135.05(4)
_cell_formula_units_Z              4
_diffrn_reflns_av_R_equivalents    0.0303
_diffrn_reflns_av_unetI/netI       0.0099
_diffrn_reflns_limit_h_max         7
_diffrn_reflns_limit_h_min         -7
_diffrn_reflns_limit_k_max         7
_diffrn_reflns_limit_k_min         -5
_diffrn_reflns_limit_l_max         7
_diffrn_reflns_limit_l_min         -7
_diffrn_reflns_number              1762
_diffrn_reflns_theta_max           29.96
_diffrn_reflns_theta_min           3.97
_diffrn_ambient_temperature        ?
_diffrn_radiation_wavelength       0.71069
_reflns_number_total               135
_refine_diff_density_max           0.04
loop_
  _atom_site_label
  _atom_site_type_symbol
  _atom_site_fract_x
  _atom_site_fract_y
  _atom_site_fract_z
  _atom_site_U_iso_or_equiv
  _atom_site_adp_type
  _atom_site_occupancy
  _atom_site_refinement_flags_posn
  _atom_site_site_symmetry_order
  _atom_site_disorder_group
 H1 H 0.127686 0.34682 0.255308 0.0537 Uiso 1 . 1 .
 N1 N 0.2103 0.2103 0.2103 0.03686 Uani 1 . 3 .

loop_
  _atom_site_aniso_label
  _atom_site_aniso_U_11
  _atom_site_aniso_U_22
  _atom_site_aniso_U_33
  _atom_site_aniso_U_23
  _atom_site_aniso_U_13
  _atom_site_aniso_U_12
 N1 0.03686 0.03686 0.03686 -0.00072 -0.00072 -0.00072

