# ========================
# Tonto generated CIF file
# ========================

# NOTE: This is an incomplete CIF file
# Manually edit it to pass checkCIF

data_my_job

_audit_creation_date                2018-4-20
_audit_creation_method              'Tonto 18.04.19 github v. 61a3969'

# ============
# QCr software
# ============

_QCr_software                       'Tonto'
_QCr_software_version               '18.04.19 v. 61a3969'
_QCr_software_platform              'Linux-4.4.0-98-generic'
_QCr_software_build_date            '2018-04-19 16:02'
_QCr_software_website               'https://github.com/dylan-jayatilaka/tonto'

# ===========
# Publication
# ===========

_publ_contact_author
;
    Prof. Dr. Sir Tonto Magnifico
;
_publ_contact_author_email          'tonto.magnifico@gmail.com'
_publ_contact_author_phone          '+61 8 6488 3138'
_publ_requested_journal             'IUCrJ'
_publ_section_title
;
   'Hirshfeld atom-refinement (HAR) for my_job'
   'X-ray wavefunction refinement (XWR) for my_job'
   Tonto Magnifico, IUCrJ (XXXX)
;

loop_
    _publ_author_name
    'Tonto Magnifico'

_publ_author_address
;
    Prof. Dr. Sir Tonto Magnifico
    1 El Camino Ciberespacio
    Tierra Austral del Espiritu Santo
;

# ========
# Chemical
# ========

_chemical_name_common               my_job
_chemical_formula_sum               'H3 N'
_chemical_formula_moiety            'H3 N'
_chemical_formula_weight            17.0306
_chemical_compound_source           'see text'
_chemical_absolute_configuration    unk

# ==========
# QCr method
# ==========

_QCr_calc_method                    'Hartree-Fock'
_QCr_calc_spinorbital_kind          'restricted'
_QCr_calc_gaussian_basis_set        'STO-3G'
_QCr_calc_gaussian_basis_set_kind   'cartesian'
_QCr_calc_basis_max_l               '1'

_QCr_calc_unit                      'See _atom_site_* in tonto.cif2'
_QCr_calc_unit_spin_multiplicity    1
_QCr_calc_unit_n_electrons          10
_QCr_calc_unit_n_alpha_electrons    5
_QCr_calc_unit_n_beta_electrons     5

# =======
# Crystal
# =======

_exptl_crystal_description          ?
_exptl_crystal_colour               ?
_exptl_crystal_size_max             ?
_exptl_crystal_size_mid             ?
_exptl_crystal_size_min             ?
_exptl_crystal_density_diffrn       ?

# ==============
# Absortion data
# ==============

_exptl_absorpt_coefficient_mu       ?
_exptl_absorpt_correction_type      'none'
_exptl_absorpt_process_details      ?
_exptl_absorpt_correction_T_min     ?
_exptl_absorpt_correction_T_max     ?

# ========
# Symmetry
# ========

_symmetry_cell_setting              Cubic
_symmetry_space_group_name_H-M      'p 21 3'
_symmetry_space_group_name_Hall     'p 2ac 2ab 3'
_symmetry_Int_Tables_number         '198'

loop_
    _symmetry_equiv_pos_as_xyz
'+x, +y, +z'
'-x+1/2, -y, +z+1/2'
'+x+1/2, -y+1/2, -z'
'+z, +x, +y'
'-x, +y+1/2, -z+1/2'
'+z+1/2, -x+1/2, -y'
'-z, +x+1/2, -y+1/2'
'-z+1/2, -x, +y+1/2'
'+y, +z, +x'
'+y+1/2, -z+1/2, -x'
'-y, +z+1/2, -x+1/2'
'-y+1/2, -z, +x+1/2'

# =========
# Unit cell
# =========

_cell_measurement_temperature  ?
_cell_measurement_reflns_used  ?
_cell_measurement_theta_min    ?
_cell_measurement_theta_max    ?

_cell_length_a                     5.1305(8)
_cell_length_b                     5.1305(8)
_cell_length_c                     5.1305(8)
_cell_angle_alpha               90.000000(0)
_cell_angle_beta                90.000000(0)
_cell_angle_gamma               90.000000(0)
_cell_volume                       135.05(4)

_cell_formula_units_Z               4.000000

_atom_sites_solution_hydrogens      HAR

# ===============
# Refinement data
# ===============

_refine_ls_kind                     'Hirshfeld atom refinement (HAR)'
_refine_ls_method_description
;
   S.C. Capelli, H.-B. Burgi, B. Dittrich, S.Grabowsky
   and Dylan Jayatilaka, IUCrJ (2014). 1, 361-379
;
_refine_QCr_Psi_constraint          'none'

_refine_ls_SVD_threshold            0.1E-02
_refine_ls_coordinate_system        cartesian
_refine_ls_structure_factor_coeff   F
_refine_ls_matrix_type              full
_refine_ls_R_factor_gt              0.0272
_refine_ls_R_factor_all             0.0272
_refine_ls_wR_factor_gt             0.0229
_refine_ls_wR_factor_all            0.0229
_refine_ls_R_Fsqd_factor            0.0791
_refine_ls_goodness_of_fit_gt       5.0532
_refine_ls_goodness_of_fit_all      5.0532
_refine_ls_number_reflns            98
_refine_ls_number_parameters        13
_refine_ls_number_restraints        0
_refine_ls_number_constraints       6
_refine_ls_hydrogen_treatment       refall
_refine_ls_weighting_scheme         sigma
_refine_ls_weighting_details        'w=1/\s(F)'
_refine_ls_shift/su_conv_tol        0.0100
_refine_ls_shift/su_max             0.0041
_refine_ls_shift/su_max_mean        0.0019
_refine_ls_shift/su_max_par         'N px'
_refine_ls_extinction_method        none

_refine_diff_density_max            0.0661
_refine_diff_density_min            -0.0448
_refine_diff_density_rms            0.0226
_refine_diff_density_max_atom       0.0327
_refine_diff_density_max_atom_tag   H3
_refine_diff_density_min_atom       0.0203
_refine_diff_density_min_atom_tag   N
_refine_diff_density_rms_atom       0.0050

_refine_special_details
;
. If constraints were applied they are defined by zero
  eigenvalues of the least-squares hessian, see the
  value of _refine_ls_SVD_threshold
;

# =====================================
# Precise fractional system coordinates
# =====================================

# . These precise data use non-standard CIF tags
# . Non-standard tags shadow standard tags to avoid duplication
# . Please keep for a better refinement restart
# . Better yet, use the refined cartesian parameters

loop_
_atom_site_Cryst_label
_atom_site_Cryst_x
_atom_site_Cryst_y
_atom_site_Cryst_z
_atom_site_Cryst_U_iso_or_equiv
_atom_site_Cryst_adp_type
_atom_site_Cryst_occupancy
_atom_site_Cryst_disorder_group
_atom_site_Cryst_x_esu
_atom_site_Cryst_y_esu
_atom_site_Cryst_z_esu
_atom_site_Cryst_U_iso_or_equiv_esu
  H1  0.125558  0.368131  0.273273  0.069934  Uani  1.000000  0
      0.002951  0.002823  0.004052  0.009740
   N  0.211950  0.211950  0.211950  0.035560  Uani  1.000000  0
      0.000121  0.000121  0.000121  0.000486

# ======================
# Fractional coordinates
# ======================

loop_
_atom_site_label
_atom_site_fract_x
_atom_site_fract_y
_atom_site_fract_z
_atom_site_U_iso_or_equiv
_atom_site_adp_type
_atom_site_occupancy
_atom_site_disorder_group
  H1  0.126(3)     0.368(3)     0.273(4)     0.070(10)  Uani  1.000000  0
   N  0.21195(12)  0.21195(12)  0.21195(12)  0.0356(5)  Uani  1.000000  0

# ==================================
# Precise cartesian axis system ADPs
# ==================================

# . These precise data use non-standard CIF tags
# . Non-standard tags shadow standard tags to avoid duplication
# . Keep these for a refinement restart
# . Better yet, use the refined cartesian parameters

loop_
_atom_site_Cryst_ADP2_U_label
_atom_site_Cryst_ADP2_U_11
_atom_site_Cryst_ADP2_U_22
_atom_site_Cryst_ADP2_U_33
_atom_site_Cryst_ADP2_U_12
_atom_site_Cryst_ADP2_U_13
_atom_site_Cryst_ADP2_U_23
_atom_site_Cryst_ADP2_U_11_esu
_atom_site_Cryst_ADP2_U_22_esu
_atom_site_Cryst_ADP2_U_33_esu
_atom_site_Cryst_ADP2_U_12_esu
_atom_site_Cryst_ADP2_U_13_esu
_atom_site_Cryst_ADP2_U_23_esu
  H1  0.054182  0.069705  0.085916   0.018115   0.012232  -0.018544
      0.008214  0.009772  0.011235   0.005500   0.006413   0.008792
   N  0.035560  0.035560  0.035560  -0.003599  -0.003599  -0.003599
      0.000486  0.000486  0.000486   0.000201   0.000201   0.000201

# ====
# ADPs
# ====

loop_
_atom_site_aniso_label
_atom_site_aniso_U_11
_atom_site_aniso_U_22
_atom_site_aniso_U_33
_atom_site_aniso_U_12
_atom_site_aniso_U_13
_atom_site_aniso_U_23
  H1  0.054(8)   0.070(10)  0.086(11)   0.018(5)    0.012(6)   -0.019(9)
   N  0.0356(5)  0.0356(5)  0.0356(5)  -0.0036(2)  -0.0036(2)  -0.0036(2)

# NOTE: Cartesian 9Nx9N covariance matrix in BOHR units
# The order of the variables (per atom) is as follows:
# . Elements 1-3: positions: x y x
# . Elements 4-9: 2nd order ADPs:
#      U 11 22 33 12 13 23
# . Elements 10-19: 3rd order ADPs (if refined):
#      U 111 222 333 112 113 122 223 133 233 123
# . Elements 20-34: 4th order ADPs (if refined):
#      U 1112 1113 1222 2223 1333 2333
#        1122 1133 2233 1123 1223 1233
# . Matrix is output in (fortran) column order

_asym_unit_covariance_matrix
;
  0.81871970E-03  0.11281871E-03 -0.41368083E-05  0.33781496E-04  0.33935393E-03
  0.27237848E-03  0.10047530E-03  0.22734883E-03  0.30431368E-04 -0.53788672E-05
 -0.53788672E-05 -0.53788672E-05  0.79898729E-05  0.79898729E-05  0.79898729E-05
  0.21013527E-05  0.21013527E-05  0.21013527E-05
  0.11281871E-03  0.74893894E-03 -0.15424556E-03  0.20946776E-03 -0.23153164E-03
  0.64609155E-03  0.19723078E-03  0.31422969E-04  0.10118784E-03  0.22932742E-07
  0.22932742E-07  0.22932742E-07  0.18001446E-04  0.18001446E-04  0.18001446E-04
 -0.42489592E-05 -0.42489592E-05 -0.42489592E-05
 -0.41368083E-05 -0.15424556E-03  0.15433168E-02  0.10351090E-03 -0.20557065E-03
 -0.18940419E-03  0.21370838E-03 -0.28025032E-04  0.28630110E-04 -0.33358304E-05
 -0.33358304E-05 -0.33358304E-05  0.30461504E-05  0.30461504E-05  0.30461504E-05
  0.10617335E-05  0.10617335E-05  0.10617335E-05
  0.33781496E-04  0.20946776E-03  0.10351090E-03  0.86049884E-03 -0.60615022E-03
 -0.28199270E-03 -0.18910080E-04  0.18699482E-03  0.10438829E-03 -0.68300471E-05
 -0.68300471E-05 -0.68300471E-05  0.80605093E-05  0.80605093E-05  0.80605093E-05
 -0.58017028E-05 -0.58017028E-05 -0.58017028E-05
  0.33935393E-03 -0.23153164E-03 -0.20557065E-03 -0.60615022E-03  0.12176740E-02
  0.12387314E-04  0.10234351E-03 -0.48073575E-04 -0.29949410E-03 -0.21738379E-05
 -0.21738379E-05 -0.21738379E-05 -0.22619324E-05 -0.22619324E-05 -0.22619324E-05
  0.70491914E-05  0.70491914E-05  0.70491914E-05
  0.27237848E-03  0.64609155E-03 -0.18940419E-03 -0.28199270E-03  0.12387314E-04
  0.16097615E-02  0.35881025E-03  0.75289619E-04 -0.41574975E-04  0.13238489E-04
  0.13238489E-04  0.13238489E-04  0.22917322E-04  0.22917322E-04  0.22917322E-04
 -0.30972672E-05 -0.30972672E-05 -0.30972672E-05
  0.10047530E-03  0.19723078E-03  0.21370838E-03 -0.18910080E-04  0.10234351E-03
  0.35881025E-03  0.38569640E-03 -0.42563840E-04 -0.57395654E-04  0.62131615E-05
  0.62131615E-05  0.62131615E-05  0.14490361E-04  0.14490361E-04  0.14490361E-04
 -0.64834077E-07 -0.64834077E-07 -0.64834077E-07
  0.22734883E-03  0.31422969E-04 -0.28025032E-04  0.18699482E-03 -0.48073575E-04
  0.75289619E-04 -0.42563840E-04  0.52447198E-03  0.12470991E-03 -0.32936684E-05
 -0.32936684E-05 -0.32936684E-05  0.44960571E-05  0.44960571E-05  0.44960571E-05
  0.13005789E-05  0.13005789E-05  0.13005789E-05
  0.30431368E-04  0.10118784E-03  0.28630110E-04  0.10438829E-03 -0.29949410E-03
 -0.41574975E-04 -0.57395654E-04  0.12470991E-03  0.98575151E-03 -0.42420310E-05
 -0.42420310E-05 -0.42420310E-05 -0.26283845E-04 -0.26283845E-04 -0.26283845E-04
  0.85265801E-05  0.85265801E-05  0.85265801E-05
 -0.53788672E-05  0.22932742E-07 -0.33358304E-05 -0.68300471E-05 -0.21738379E-05
  0.13238489E-04  0.62131615E-05 -0.32936684E-05 -0.42420310E-05  0.13768053E-05
  0.13768053E-05  0.13768053E-05  0.37890141E-06  0.37890141E-06  0.37890141E-06
 -0.13540107E-06 -0.13540107E-06 -0.13540107E-06
 -0.53788672E-05  0.22932742E-07 -0.33358304E-05 -0.68300471E-05 -0.21738379E-05
  0.13238489E-04  0.62131615E-05 -0.32936684E-05 -0.42420310E-05  0.13768053E-05
  0.13768053E-05  0.13768053E-05  0.37890141E-06  0.37890141E-06  0.37890141E-06
 -0.13540107E-06 -0.13540107E-06 -0.13540107E-06
 -0.53788672E-05  0.22932742E-07 -0.33358304E-05 -0.68300471E-05 -0.21738379E-05
  0.13238489E-04  0.62131615E-05 -0.32936684E-05 -0.42420310E-05  0.13768053E-05
  0.13768053E-05  0.13768053E-05  0.37890141E-06  0.37890141E-06  0.37890141E-06
 -0.13540107E-06 -0.13540107E-06 -0.13540107E-06
  0.79898729E-05  0.18001446E-04  0.30461504E-05  0.80605093E-05 -0.22619324E-05
  0.22917322E-04  0.14490361E-04  0.44960571E-05 -0.26283845E-04  0.37890141E-06
  0.37890141E-06  0.37890141E-06  0.30108087E-05  0.30108087E-05  0.30108087E-05
 -0.42355411E-06 -0.42355411E-06 -0.42355411E-06
  0.79898729E-05  0.18001446E-04  0.30461504E-05  0.80605093E-05 -0.22619324E-05
  0.22917322E-04  0.14490361E-04  0.44960571E-05 -0.26283845E-04  0.37890141E-06
  0.37890141E-06  0.37890141E-06  0.30108087E-05  0.30108087E-05  0.30108087E-05
 -0.42355411E-06 -0.42355411E-06 -0.42355411E-06
  0.79898729E-05  0.18001446E-04  0.30461504E-05  0.80605093E-05 -0.22619324E-05
  0.22917322E-04  0.14490361E-04  0.44960571E-05 -0.26283845E-04  0.37890141E-06
  0.37890141E-06  0.37890141E-06  0.30108087E-05  0.30108087E-05  0.30108087E-05
 -0.42355411E-06 -0.42355411E-06 -0.42355411E-06
  0.21013527E-05 -0.42489592E-05  0.10617335E-05 -0.58017028E-05  0.70491914E-05
 -0.30972672E-05 -0.64834077E-07  0.13005789E-05  0.85265801E-05 -0.13540107E-06
 -0.13540107E-06 -0.13540107E-06 -0.42355411E-06 -0.42355411E-06 -0.42355411E-06
  0.51435095E-06  0.51435095E-06  0.51435095E-06
  0.21013527E-05 -0.42489592E-05  0.10617335E-05 -0.58017028E-05  0.70491914E-05
 -0.30972672E-05 -0.64834077E-07  0.13005789E-05  0.85265801E-05 -0.13540107E-06
 -0.13540107E-06 -0.13540107E-06 -0.42355411E-06 -0.42355411E-06 -0.42355411E-06
  0.51435095E-06  0.51435095E-06  0.51435095E-06
  0.21013527E-05 -0.42489592E-05  0.10617335E-05 -0.58017028E-05  0.70491914E-05
 -0.30972672E-05 -0.64834077E-07  0.13005789E-05  0.85265801E-05 -0.13540107E-06
 -0.13540107E-06 -0.13540107E-06 -0.42355411E-06 -0.42355411E-06 -0.42355411E-06
  0.51435095E-06  0.51435095E-06  0.51435095E-06

;

# ===========
# Reflections
# ===========

_diffrn_radiation_wavelength        0.710730

_shelx_F_calc_maximum               21.581163

_reflns_d_resolution_high           2.962096
_reflns_d_resolution_low            0.718414
_reflns_limit_h_max                 4
_reflns_limit_h_min                 -4
_reflns_limit_k_max                 7
_reflns_limit_k_min                 -7
_reflns_limit_l_max                 6
_reflns_limit_l_min                 -6
_reflns_number_gt                   98
_reflns_number_total                98
_reflns_threshold_expression        'F>0 & F/u(F)>3.0 & |F_calc|>10^-3'

_reflns_special_details
;
* Specify symmetry and Friedel pair averaging *

. Only reflections which satisfy the threshold expression
  are listed below, and only they are considered observed,
  thus the *_gt, *_all, & *_total data are always the same
;

# ============
# Bond lengths
# ============

loop_
 _geom_bond_atom_site_label_1
 _geom_bond_site_symmetry_1
 _geom_bond_atom_site_label_2
 _geom_bond_site_symmetry_2
 _geom_bond_distance
 _geom_bond_publ_flag
   N  .  H1  .  0.968(14)  yes

# ===========
# Bond Angles
# ===========

loop_
 _geom_angle_atom_site_label_1
 _geom_angle_site_symmetry_1
 _geom_angle_atom_site_label_2
 _geom_angle_site_symmetry_2
 _geom_angle_atom_site_label_3
 _geom_angle_site_symmetry_3
 _geom_angle
 _geom_angle_publ_flag
