# ========================
# Tonto generated CIF file
# ========================

# NOTE: This is an incomplete CIF file
# Manually edit it to pass checkCIF

data_my_job

_audit_creation_date                2018-4-20
_audit_creation_method              'Tonto 18.04.19 github v. 61a3969'

# ============
# QCr software
# ============

_QCr_software                       'Tonto'
_QCr_software_version               '18.04.19 v. 61a3969'
_QCr_software_platform              'Linux-4.4.0-98-generic'
_QCr_software_build_date            '2018-04-19 16:02'
_QCr_software_website               'https://github.com/dylan-jayatilaka/tonto'

# ===========
# Publication
# ===========

_publ_contact_author
;
    Prof. Dr. Sir Tonto Magnifico
;
_publ_contact_author_email          'tonto.magnifico@gmail.com'
_publ_contact_author_phone          '+61 8 6488 3138'
_publ_requested_journal             'IUCrJ'
_publ_section_title
;
   'Hirshfeld atom-refinement (HAR) for my_job'
   'X-ray wavefunction refinement (XWR) for my_job'
   Tonto Magnifico, IUCrJ (XXXX)
;

loop_
    _publ_author_name
    'Tonto Magnifico'

_publ_author_address
;
    Prof. Dr. Sir Tonto Magnifico
    1 El Camino Ciberespacio
    Tierra Austral del Espiritu Santo
;

# ========
# Chemical
# ========

_chemical_name_common               my_job
_chemical_formula_sum               'H3 N'
_chemical_formula_moiety            'H3 N'
_chemical_formula_weight            17.0306
_chemical_compound_source           'see text'
_chemical_absolute_configuration    unk

# ==========
# QCr method
# ==========

_QCr_calc_method                    'Hartree-Fock/SCCF L=1 R=8.0 A'
_QCr_calc_spinorbital_kind          'restricted'
_QCr_calc_gaussian_basis_set        'custom?'
_QCr_calc_gaussian_basis_set_kind   'cartesian'
_QCr_calc_basis_max_l               '1'

_QCr_calc_unit                      'See _atom_site_* in tonto.cif2'
_QCr_calc_unit_spin_multiplicity    1
_QCr_calc_unit_n_electrons          10
_QCr_calc_unit_n_alpha_electrons    5
_QCr_calc_unit_n_beta_electrons     5

# =======
# Crystal
# =======

_exptl_crystal_description          ?
_exptl_crystal_colour               ?
_exptl_crystal_size_max             ?
_exptl_crystal_size_mid             ?
_exptl_crystal_size_min             ?
_exptl_crystal_density_diffrn       ?

# ==============
# Absortion data
# ==============

_exptl_absorpt_coefficient_mu       ?
_exptl_absorpt_correction_type      'none'
_exptl_absorpt_process_details      ?
_exptl_absorpt_correction_T_min     ?
_exptl_absorpt_correction_T_max     ?

# ========
# Symmetry
# ========

_symmetry_cell_setting              Cubic
_symmetry_space_group_name_H-M      'p 21 3'
_symmetry_space_group_name_Hall     'p 2ac 2ab 3'
_symmetry_Int_Tables_number         '198'

loop_
    _symmetry_equiv_pos_as_xyz
'+x, +y, +z'
'-x+1/2, -y, +z+1/2'
'+x+1/2, -y+1/2, -z'
'+z, +x, +y'
'-x, +y+1/2, -z+1/2'
'+z+1/2, -x+1/2, -y'
'-z, +x+1/2, -y+1/2'
'-z+1/2, -x, +y+1/2'
'+y, +z, +x'
'+y+1/2, -z+1/2, -x'
'-y, +z+1/2, -x+1/2'
'-y+1/2, -z, +x+1/2'

# =========
# Unit cell
# =========

_cell_measurement_temperature  ?
_cell_measurement_reflns_used  ?
_cell_measurement_theta_min    ?
_cell_measurement_theta_max    ?

_cell_length_a                     5.1305(8)
_cell_length_b                     5.1305(8)
_cell_length_c                     5.1305(8)
_cell_angle_alpha               90.000000(0)
_cell_angle_beta                90.000000(0)
_cell_angle_gamma               90.000000(0)
_cell_volume                       135.05(4)

_cell_formula_units_Z               4.000000

_atom_sites_solution_hydrogens      HAR

# ===============
# Refinement data
# ===============

_refine_ls_kind                     'Hirshfeld atom refinement (HAR)'
_refine_ls_method_description
;
   S.C. Capelli, H.-B. Burgi, B. Dittrich, S.Grabowsky
   and Dylan Jayatilaka, IUCrJ (2014). 1, 361-379
;
_refine_QCr_Psi_constraint          'none'

_refine_ls_SVD_threshold            0.1E-02
_refine_ls_coordinate_system        cartesian
_refine_ls_structure_factor_coeff   F
_refine_ls_matrix_type              full
_refine_ls_R_factor_gt              0.0272
_refine_ls_R_factor_all             0.0272
_refine_ls_wR_factor_gt             0.0229
_refine_ls_wR_factor_all            0.0229
_refine_ls_R_Fsqd_factor            0.0786
_refine_ls_goodness_of_fit_gt       5.0512
_refine_ls_goodness_of_fit_all      5.0512
_refine_ls_number_reflns            98
_refine_ls_number_parameters        13
_refine_ls_number_restraints        0
_refine_ls_number_constraints       6
_refine_ls_hydrogen_treatment       refall
_refine_ls_weighting_scheme         sigma
_refine_ls_weighting_details        'w=1/\s(F)'
_refine_ls_shift/su_conv_tol        0.0100
_refine_ls_shift/su_max             0.0000
_refine_ls_shift/su_max_mean        0.0000
_refine_ls_shift/su_max_par         ''
_refine_ls_extinction_method        none

_refine_diff_density_max            0.0659
_refine_diff_density_min            -0.0447
_refine_diff_density_rms            0.0225
_refine_diff_density_max_atom       0.0326
_refine_diff_density_max_atom_tag   H3
_refine_diff_density_min_atom       0.0202
_refine_diff_density_min_atom_tag   N
_refine_diff_density_rms_atom       0.0050

_refine_special_details
;
. If constraints were applied they are defined by zero
  eigenvalues of the least-squares hessian, see the
  value of _refine_ls_SVD_threshold
;

# =====================================
# Precise fractional system coordinates
# =====================================

# . These precise data use non-standard CIF tags
# . Non-standard tags shadow standard tags to avoid duplication
# . Please keep for a better refinement restart
# . Better yet, use the refined cartesian parameters

loop_
_atom_site_Cryst_label
_atom_site_Cryst_x
_atom_site_Cryst_y
_atom_site_Cryst_z
_atom_site_Cryst_U_iso_or_equiv
_atom_site_Cryst_adp_type
_atom_site_Cryst_occupancy
_atom_site_Cryst_disorder_group
_atom_site_Cryst_x_esu
_atom_site_Cryst_y_esu
_atom_site_Cryst_z_esu
_atom_site_Cryst_U_iso_or_equiv_esu
  H1  0.125501  0.368376  0.273199  0.069673  Uani  1.000000  0
      0.002949  0.002819  0.004051  0.009724
   N  0.211951  0.211951  0.211951  0.035541  Uani  1.000000  0
      0.000121  0.000121  0.000121  0.000485

# ======================
# Fractional coordinates
# ======================

loop_
_atom_site_label
_atom_site_fract_x
_atom_site_fract_y
_atom_site_fract_z
_atom_site_U_iso_or_equiv
_atom_site_adp_type
_atom_site_occupancy
_atom_site_disorder_group
  H1  0.126(3)     0.368(3)     0.273(4)     0.070(10)  Uani  1.000000  0
   N  0.21195(12)  0.21195(12)  0.21195(12)  0.0355(5)  Uani  1.000000  0

# ==================================
# Precise cartesian axis system ADPs
# ==================================

# . These precise data use non-standard CIF tags
# . Non-standard tags shadow standard tags to avoid duplication
# . Keep these for a refinement restart
# . Better yet, use the refined cartesian parameters

loop_
_atom_site_Cryst_ADP2_U_label
_atom_site_Cryst_ADP2_U_11
_atom_site_Cryst_ADP2_U_22
_atom_site_Cryst_ADP2_U_33
_atom_site_Cryst_ADP2_U_12
_atom_site_Cryst_ADP2_U_13
_atom_site_Cryst_ADP2_U_23
_atom_site_Cryst_ADP2_U_11_esu
_atom_site_Cryst_ADP2_U_22_esu
_atom_site_Cryst_ADP2_U_33_esu
_atom_site_Cryst_ADP2_U_12_esu
_atom_site_Cryst_ADP2_U_13_esu
_atom_site_Cryst_ADP2_U_23_esu
  H1  0.054006  0.069250  0.085762   0.018083   0.012306  -0.018532
      0.008202  0.009738  0.011231   0.005486   0.006412   0.008777
   N  0.035541  0.035541  0.035541  -0.003590  -0.003590  -0.003590
      0.000485  0.000485  0.000485   0.000201   0.000201   0.000201

# ====
# ADPs
# ====

loop_
_atom_site_aniso_label
_atom_site_aniso_U_11
_atom_site_aniso_U_22
_atom_site_aniso_U_33
_atom_site_aniso_U_12
_atom_site_aniso_U_13
_atom_site_aniso_U_23
  H1  0.054(8)   0.069(10)  0.086(11)   0.018(5)    0.012(6)   -0.019(9)
   N  0.0355(5)  0.0355(5)  0.0355(5)  -0.0036(2)  -0.0036(2)  -0.0036(2)

# NOTE: Cartesian 9Nx9N covariance matrix in BOHR units
# The order of the variables (per atom) is as follows:
# . Elements 1-3: positions: x y x
# . Elements 4-9: 2nd order ADPs:
#      U 11 22 33 12 13 23
# . Elements 10-19: 3rd order ADPs (if refined):
#      U 111 222 333 112 113 122 223 133 233 123
# . Elements 20-34: 4th order ADPs (if refined):
#      U 1112 1113 1222 2223 1333 2333
#        1122 1133 2233 1123 1223 1233
# . Matrix is output in (fortran) column order

_asym_unit_covariance_matrix
;
  0.81770489E-03  0.11358627E-03 -0.24373994E-05  0.34201220E-04  0.33808460E-03
  0.27209568E-03  0.99693189E-04  0.22717852E-03  0.28396597E-04 -0.53742132E-05
 -0.53742130E-05 -0.53742132E-05  0.80249978E-05  0.80249974E-05  0.80249976E-05
  0.20771763E-05  0.20771765E-05  0.20771763E-05
  0.11358627E-03  0.74673119E-03 -0.15757802E-03  0.20782008E-03 -0.22986984E-03
  0.64462709E-03  0.19556119E-03  0.32331633E-04  0.10073813E-03 -0.71811618E-08
 -0.71802163E-08 -0.71814994E-08  0.17930194E-04  0.17930194E-04  0.17930194E-04
 -0.42313826E-05 -0.42313819E-05 -0.42313827E-05
 -0.24373994E-05 -0.15757802E-03  0.15424689E-02  0.10145161E-03 -0.20139295E-03
 -0.18924008E-03  0.21260553E-03 -0.28417253E-04  0.26347118E-04 -0.33436553E-05
 -0.33436577E-05 -0.33436563E-05  0.29662377E-05  0.29662383E-05  0.29662388E-05
  0.11197691E-05  0.11197692E-05  0.11197725E-05
  0.34201220E-04  0.20782008E-03  0.10145161E-03  0.85797919E-03 -0.60206197E-03
 -0.28184971E-03 -0.19283815E-04  0.18711446E-03  0.10388584E-03 -0.67943704E-05
 -0.67943704E-05 -0.67943711E-05  0.79917294E-05  0.79917299E-05  0.79917294E-05
 -0.57341074E-05 -0.57341071E-05 -0.57341065E-05
  0.33808460E-03 -0.22986984E-03 -0.20139295E-03 -0.60206197E-03  0.12092828E-02
  0.10116413E-04  0.10134326E-03 -0.47718659E-04 -0.29873754E-03 -0.22236491E-05
 -0.22236495E-05 -0.22236482E-05 -0.22288922E-05 -0.22288929E-05 -0.22288925E-05
  0.69744311E-05  0.69744306E-05  0.69744299E-05
  0.27209568E-03  0.64462709E-03 -0.18924008E-03 -0.28184971E-03  0.10116413E-04
  0.16086659E-02  0.35696826E-03  0.76711279E-04 -0.42134776E-04  0.13178808E-04
  0.13178809E-04  0.13178808E-04  0.22892771E-04  0.22892770E-04  0.22892771E-04
 -0.31408535E-05 -0.31408525E-05 -0.31408540E-05
  0.99693189E-04  0.19556119E-03  0.21260553E-03 -0.19283815E-04  0.10134326E-03
  0.35696826E-03  0.38382850E-03 -0.42641681E-04 -0.57253822E-04  0.61833992E-05
  0.61833990E-05  0.61833990E-05  0.14418386E-04  0.14418386E-04  0.14418386E-04
 -0.68405331E-07 -0.68405044E-07 -0.68404915E-07
  0.22717852E-03  0.32331633E-04 -0.28417253E-04  0.18711446E-03 -0.47718659E-04
  0.76711279E-04 -0.42641681E-04  0.52436620E-03  0.12414667E-03 -0.32974680E-05
 -0.32974677E-05 -0.32974681E-05  0.44937051E-05  0.44937048E-05  0.44937050E-05
  0.13020303E-05  0.13020305E-05  0.13020305E-05
  0.28396597E-04  0.10073813E-03  0.26347118E-04  0.10388584E-03 -0.29873754E-03
 -0.42134776E-04 -0.57253822E-04  0.12414667E-03  0.98240702E-03 -0.42092564E-05
 -0.42092558E-05 -0.42092566E-05 -0.26171078E-04 -0.26171078E-04 -0.26171078E-04
  0.85108564E-05  0.85108566E-05  0.85108564E-05
 -0.53742132E-05 -0.71811618E-08 -0.33436553E-05 -0.67943704E-05 -0.22236491E-05
  0.13178808E-04  0.61833992E-05 -0.32974680E-05 -0.42092564E-05  0.13746837E-05
  0.13746837E-05  0.13746837E-05  0.37782401E-06  0.37782400E-06  0.37782400E-06
 -0.13623335E-06 -0.13623335E-06 -0.13623336E-06
 -0.53742130E-05 -0.71802163E-08 -0.33436577E-05 -0.67943704E-05 -0.22236495E-05
  0.13178809E-04  0.61833990E-05 -0.32974677E-05 -0.42092558E-05  0.13746837E-05
  0.13746837E-05  0.13746837E-05  0.37782401E-06  0.37782400E-06  0.37782401E-06
 -0.13623336E-06 -0.13623335E-06 -0.13623336E-06
 -0.53742132E-05 -0.71814994E-08 -0.33436563E-05 -0.67943711E-05 -0.22236482E-05
  0.13178808E-04  0.61833990E-05 -0.32974681E-05 -0.42092566E-05  0.13746837E-05
  0.13746837E-05  0.13746837E-05  0.37782400E-06  0.37782399E-06  0.37782399E-06
 -0.13623335E-06 -0.13623334E-06 -0.13623336E-06
  0.80249978E-05  0.17930194E-04  0.29662377E-05  0.79917294E-05 -0.22288922E-05
  0.22892771E-04  0.14418386E-04  0.44937051E-05 -0.26171078E-04  0.37782401E-06
  0.37782401E-06  0.37782400E-06  0.30020927E-05  0.30020927E-05  0.30020927E-05
 -0.42201482E-06 -0.42201480E-06 -0.42201480E-06
  0.80249974E-05  0.17930194E-04  0.29662383E-05  0.79917299E-05 -0.22288929E-05
  0.22892770E-04  0.14418386E-04  0.44937048E-05 -0.26171078E-04  0.37782400E-06
  0.37782400E-06  0.37782399E-06  0.30020927E-05  0.30020927E-05  0.30020927E-05
 -0.42201482E-06 -0.42201480E-06 -0.42201480E-06
  0.80249976E-05  0.17930194E-04  0.29662388E-05  0.79917294E-05 -0.22288925E-05
  0.22892771E-04  0.14418386E-04  0.44937050E-05 -0.26171078E-04  0.37782400E-06
  0.37782401E-06  0.37782399E-06  0.30020927E-05  0.30020927E-05  0.30020927E-05
 -0.42201482E-06 -0.42201480E-06 -0.42201480E-06
  0.20771763E-05 -0.42313826E-05  0.11197691E-05 -0.57341074E-05  0.69744311E-05
 -0.31408535E-05 -0.68405331E-07  0.13020303E-05  0.85108564E-05 -0.13623335E-06
 -0.13623336E-06 -0.13623335E-06 -0.42201482E-06 -0.42201482E-06 -0.42201482E-06
  0.51328490E-06  0.51328489E-06  0.51328489E-06
  0.20771765E-05 -0.42313819E-05  0.11197692E-05 -0.57341071E-05  0.69744306E-05
 -0.31408525E-05 -0.68405044E-07  0.13020305E-05  0.85108566E-05 -0.13623335E-06
 -0.13623335E-06 -0.13623334E-06 -0.42201480E-06 -0.42201480E-06 -0.42201480E-06
  0.51328489E-06  0.51328489E-06  0.51328489E-06
  0.20771763E-05 -0.42313827E-05  0.11197725E-05 -0.57341065E-05  0.69744299E-05
 -0.31408540E-05 -0.68404915E-07  0.13020305E-05  0.85108564E-05 -0.13623336E-06
 -0.13623336E-06 -0.13623336E-06 -0.42201480E-06 -0.42201480E-06 -0.42201480E-06
  0.51328489E-06  0.51328489E-06  0.51328489E-06

;

# ===========
# Reflections
# ===========

_diffrn_radiation_wavelength        0.710730

_shelx_F_calc_maximum               21.588279

_reflns_d_resolution_high           2.962096
_reflns_d_resolution_low            0.718414
_reflns_limit_h_max                 4
_reflns_limit_h_min                 -4
_reflns_limit_k_max                 7
_reflns_limit_k_min                 -7
_reflns_limit_l_max                 6
_reflns_limit_l_min                 -6
_reflns_number_gt                   98
_reflns_number_total                98
_reflns_threshold_expression        'F>0 & F/u(F)>3.0 & |F_calc|>10^-3'

_reflns_special_details
;
* Specify symmetry and Friedel pair averaging *

. Only reflections which satisfy the threshold expression
  are listed below, and only they are considered observed,
  thus the *_gt, *_all, & *_total data are always the same
;

# ============
# Bond lengths
# ============

loop_
 _geom_bond_atom_site_label_1
 _geom_bond_site_symmetry_1
 _geom_bond_atom_site_label_2
 _geom_bond_site_symmetry_2
 _geom_bond_distance
 _geom_bond_publ_flag
   N  .  H1  .  0.969(14)  yes

# ===========
# Bond Angles
# ===========

loop_
 _geom_angle_atom_site_label_1
 _geom_angle_site_symmetry_1
 _geom_angle_atom_site_label_2
 _geom_angle_site_symmetry_2
 _geom_angle_atom_site_label_3
 _geom_angle_site_symmetry_3
 _geom_angle
 _geom_angle_publ_flag
