# ========================
# Tonto generated CIF file
# ========================

# NOTE: This is an incomplete CIF file
# Manually edit it to pass checkCIF

data_my_job

_audit_creation_date                2018-4-20
_audit_creation_method              'Tonto 18.04.19 github v. 61a3969'

# ============
# QCr software
# ============

_QCr_software                       'Tonto'
_QCr_software_version               '18.04.19 v. 61a3969'
_QCr_software_platform              'Linux-4.4.0-98-generic'
_QCr_software_build_date            '2018-04-19 16:02'
_QCr_software_website               'https://github.com/dylan-jayatilaka/tonto'

# ===========
# Publication
# ===========

_publ_contact_author
;
    Prof. Dr. Sir Tonto Magnifico
;
_publ_contact_author_email          'tonto.magnifico@gmail.com'
_publ_contact_author_phone          '+61 8 6488 3138'
_publ_requested_journal             'IUCrJ'
_publ_section_title
;
   'Hirshfeld atom-refinement (HAR) for my_job'
   'X-ray wavefunction refinement (XWR) for my_job'
   Tonto Magnifico, IUCrJ (XXXX)
;

loop_
    _publ_author_name
    'Tonto Magnifico'

_publ_author_address
;
    Prof. Dr. Sir Tonto Magnifico
    1 El Camino Ciberespacio
    Tierra Austral del Espiritu Santo
;

# ========
# Chemical
# ========

_chemical_name_common               my_job
_chemical_formula_sum               'H3 N'
_chemical_formula_moiety            'H3 N'
_chemical_formula_weight            17.0306
_chemical_compound_source           'see text'
_chemical_absolute_configuration    unk

# ==========
# QCr method
# ==========

_QCr_calc_method                    'Hartree-Fock'
_QCr_calc_spinorbital_kind          'restricted'
_QCr_calc_gaussian_basis_set        'STO-3G'
_QCr_calc_gaussian_basis_set_kind   'cartesian'
_QCr_calc_basis_max_l               '1'

_QCr_calc_unit                      'See _atom_site_* in tonto.cif2'
_QCr_calc_unit_spin_multiplicity    1
_QCr_calc_unit_n_electrons          10
_QCr_calc_unit_n_alpha_electrons    5
_QCr_calc_unit_n_beta_electrons     5

# =======
# Crystal
# =======

_exptl_crystal_description          ?
_exptl_crystal_colour               ?
_exptl_crystal_size_max             ?
_exptl_crystal_size_mid             ?
_exptl_crystal_size_min             ?
_exptl_crystal_density_diffrn       ?

# ==============
# Absortion data
# ==============

_exptl_absorpt_coefficient_mu       ?
_exptl_absorpt_correction_type      'none'
_exptl_absorpt_process_details      ?
_exptl_absorpt_correction_T_min     ?
_exptl_absorpt_correction_T_max     ?

# ========
# Symmetry
# ========

_symmetry_cell_setting              Cubic
_symmetry_space_group_name_H-M      'p 21 3'
_symmetry_space_group_name_Hall     'p 2ac 2ab 3'
_symmetry_Int_Tables_number         '198'

loop_
    _symmetry_equiv_pos_as_xyz
'+x, +y, +z'
'-x+1/2, -y, +z+1/2'
'+x+1/2, -y+1/2, -z'
'+z, +x, +y'
'-x, +y+1/2, -z+1/2'
'+z+1/2, -x+1/2, -y'
'-z, +x+1/2, -y+1/2'
'-z+1/2, -x, +y+1/2'
'+y, +z, +x'
'+y+1/2, -z+1/2, -x'
'-y, +z+1/2, -x+1/2'
'-y+1/2, -z, +x+1/2'

# =========
# Unit cell
# =========

_cell_measurement_temperature  ?
_cell_measurement_reflns_used  ?
_cell_measurement_theta_min    ?
_cell_measurement_theta_max    ?

_cell_length_a                     5.1305(8)
_cell_length_b                     5.1305(8)
_cell_length_c                     5.1305(8)
_cell_angle_alpha               90.000000(0)
_cell_angle_beta                90.000000(0)
_cell_angle_gamma               90.000000(0)
_cell_volume                       135.05(4)

_cell_formula_units_Z               4.000000

_atom_sites_solution_hydrogens      HAR

# ===============
# Refinement data
# ===============

_refine_ls_kind                     'Hirshfeld atom refinement (HAR)'
_refine_ls_method_description
;
   S.C. Capelli, H.-B. Burgi, B. Dittrich, S.Grabowsky
   and Dylan Jayatilaka, IUCrJ (2014). 1, 361-379
;
_refine_QCr_Psi_constraint          'none'

_refine_ls_SVD_threshold            0.1E-02
_refine_ls_coordinate_system        cartesian
_refine_ls_structure_factor_coeff   F
_refine_ls_matrix_type              full
_refine_ls_R_factor_gt              0.0270
_refine_ls_R_factor_all             0.0270
_refine_ls_wR_factor_gt             0.0228
_refine_ls_wR_factor_all            0.0228
_refine_ls_R_Fsqd_factor            0.0780
_refine_ls_goodness_of_fit_gt       5.0204
_refine_ls_goodness_of_fit_all      5.0204
_refine_ls_number_reflns            98
_refine_ls_number_parameters        13
_refine_ls_number_restraints        0
_refine_ls_number_constraints       6
_refine_ls_hydrogen_treatment       refall
_refine_ls_weighting_scheme         sigma
_refine_ls_weighting_details        'w=1/\s(F)'
_refine_ls_shift/su_conv_tol        0.0100
_refine_ls_shift/su_max             0.0040
_refine_ls_shift/su_max_mean        0.0018
_refine_ls_shift/su_max_par         'N px'
_refine_ls_extinction_method        none

_refine_diff_density_max            0.0656
_refine_diff_density_min            -0.0444
_refine_diff_density_rms            0.0224
_refine_diff_density_max_atom       0.0324
_refine_diff_density_max_atom_tag   H3
_refine_diff_density_min_atom       0.0201
_refine_diff_density_min_atom_tag   N
_refine_diff_density_rms_atom       0.0049

_refine_special_details
;
. If constraints were applied they are defined by zero
  eigenvalues of the least-squares hessian, see the
  value of _refine_ls_SVD_threshold
;

# =====================================
# Precise fractional system coordinates
# =====================================

# . These precise data use non-standard CIF tags
# . Non-standard tags shadow standard tags to avoid duplication
# . Please keep for a better refinement restart
# . Better yet, use the refined cartesian parameters

loop_
_atom_site_Cryst_label
_atom_site_Cryst_x
_atom_site_Cryst_y
_atom_site_Cryst_z
_atom_site_Cryst_U_iso_or_equiv
_atom_site_Cryst_adp_type
_atom_site_Cryst_occupancy
_atom_site_Cryst_disorder_group
_atom_site_Cryst_x_esu
_atom_site_Cryst_y_esu
_atom_site_Cryst_z_esu
_atom_site_Cryst_U_iso_or_equiv_esu
  H1  0.125522  0.367952  0.273140  0.069599  Uani  1.000000  0
      0.002928  0.002807  0.004006  0.009658
   N  0.211940  0.211940  0.211940  0.035624  Uani  1.000000  0
      0.000121  0.000121  0.000121  0.000484

# ======================
# Fractional coordinates
# ======================

loop_
_atom_site_label
_atom_site_fract_x
_atom_site_fract_y
_atom_site_fract_z
_atom_site_U_iso_or_equiv
_atom_site_adp_type
_atom_site_occupancy
_atom_site_disorder_group
  H1  0.126(3)     0.368(3)     0.273(4)     0.070(10)  Uani  1.000000  0
   N  0.21194(12)  0.21194(12)  0.21194(12)  0.0356(5)  Uani  1.000000  0

# ==================================
# Precise cartesian axis system ADPs
# ==================================

# . These precise data use non-standard CIF tags
# . Non-standard tags shadow standard tags to avoid duplication
# . Keep these for a refinement restart
# . Better yet, use the refined cartesian parameters

loop_
_atom_site_Cryst_ADP2_U_label
_atom_site_Cryst_ADP2_U_11
_atom_site_Cryst_ADP2_U_22
_atom_site_Cryst_ADP2_U_33
_atom_site_Cryst_ADP2_U_12
_atom_site_Cryst_ADP2_U_13
_atom_site_Cryst_ADP2_U_23
_atom_site_Cryst_ADP2_U_11_esu
_atom_site_Cryst_ADP2_U_22_esu
_atom_site_Cryst_ADP2_U_33_esu
_atom_site_Cryst_ADP2_U_12_esu
_atom_site_Cryst_ADP2_U_13_esu
_atom_site_Cryst_ADP2_U_23_esu
  H1  0.054039  0.069641  0.085116   0.017863   0.012105  -0.018466
      0.008162  0.009710  0.011104   0.005473   0.006351   0.008736
   N  0.035624  0.035624  0.035624  -0.003592  -0.003592  -0.003592
      0.000484  0.000484  0.000484   0.000200   0.000200   0.000200

# ====
# ADPs
# ====

loop_
_atom_site_aniso_label
_atom_site_aniso_U_11
_atom_site_aniso_U_22
_atom_site_aniso_U_33
_atom_site_aniso_U_12
_atom_site_aniso_U_13
_atom_site_aniso_U_23
  H1  0.054(8)   0.070(10)  0.085(11)   0.018(5)    0.012(6)   -0.018(9)
   N  0.0356(5)  0.0356(5)  0.0356(5)  -0.0036(2)  -0.0036(2)  -0.0036(2)

# NOTE: Cartesian 9Nx9N covariance matrix in BOHR units
# The order of the variables (per atom) is as follows:
# . Elements 1-3: positions: x y x
# . Elements 4-9: 2nd order ADPs:
#      U 11 22 33 12 13 23
# . Elements 10-19: 3rd order ADPs (if refined):
#      U 111 222 333 112 113 122 223 133 233 123
# . Elements 20-34: 4th order ADPs (if refined):
#      U 1112 1113 1222 2223 1333 2333
#        1122 1133 2233 1123 1223 1233
# . Matrix is output in (fortran) column order

_asym_unit_covariance_matrix
;
  0.80612467E-03  0.10741006E-03 -0.54325844E-05  0.34139153E-04  0.33597753E-03
  0.26304222E-03  0.98488945E-04  0.22411214E-03  0.29710452E-04 -0.53526753E-05
 -0.53526753E-05 -0.53526753E-05  0.77977107E-05  0.77977107E-05  0.77977107E-05
  0.20746385E-05  0.20746385E-05  0.20746385E-05
  0.10741006E-03  0.74042871E-03 -0.15167865E-03  0.20870118E-03 -0.23090511E-03
  0.63343793E-03  0.19595779E-03  0.30082879E-04  0.99568183E-04  0.13783058E-06
  0.13783058E-06  0.13783058E-06  0.17970634E-04  0.17970634E-04  0.17970634E-04
 -0.42189225E-05 -0.42189225E-05 -0.42189225E-05
 -0.54325844E-05 -0.15167865E-03  0.15084529E-02  0.10145310E-03 -0.20336591E-03
 -0.18230433E-03  0.20971665E-03 -0.25310756E-04  0.27549461E-04 -0.32243181E-05
 -0.32243181E-05 -0.32243181E-05  0.31921145E-05  0.31921145E-05  0.31921145E-05
  0.10090502E-05  0.10090502E-05  0.10090502E-05
  0.34139153E-04  0.20870118E-03  0.10145310E-03  0.84955027E-03 -0.59787364E-03
 -0.27655960E-03 -0.19078877E-04  0.18465643E-03  0.10341411E-03 -0.68147770E-05
 -0.68147770E-05 -0.68147770E-05  0.80136453E-05  0.80136453E-05  0.80136453E-05
 -0.57905610E-05 -0.57905610E-05 -0.57905610E-05
  0.33597753E-03 -0.23090511E-03 -0.20336591E-03 -0.59787364E-03  0.12022612E-02
  0.11298530E-04  0.98953407E-04 -0.45237461E-04 -0.29592945E-03 -0.21977284E-05
 -0.21977284E-05 -0.21977284E-05 -0.23379596E-05 -0.23379596E-05 -0.23379596E-05
  0.69947875E-05  0.69947875E-05  0.69947875E-05
  0.26304222E-03  0.63343793E-03 -0.18230433E-03 -0.27655960E-03  0.11298530E-04
  0.15722536E-02  0.35647648E-03  0.71507061E-04 -0.41464883E-04  0.13251627E-04
  0.13251627E-04  0.13251627E-04  0.22772400E-04  0.22772400E-04  0.22772400E-04
 -0.29915670E-05 -0.29915670E-05 -0.29915670E-05
  0.98488945E-04  0.19595779E-03  0.20971665E-03 -0.19078877E-04  0.98953407E-04
  0.35647648E-03  0.38203839E-03 -0.40762524E-04 -0.56478950E-04  0.62599424E-05
  0.62599424E-05  0.62599424E-05  0.14495270E-04  0.14495270E-04  0.14495270E-04
 -0.53928957E-07 -0.53928957E-07 -0.53928957E-07
  0.22411214E-03  0.30082879E-04 -0.25310756E-04  0.18465643E-03 -0.45237461E-04
  0.71507061E-04 -0.40762524E-04  0.51433145E-03  0.11959814E-03 -0.32781162E-05
 -0.32781162E-05 -0.32781162E-05  0.45096112E-05  0.45096112E-05  0.45096112E-05
  0.12577392E-05  0.12577392E-05  0.12577392E-05
  0.29710452E-04  0.99568183E-04  0.27549461E-04  0.10341411E-03 -0.29592945E-03
 -0.41464883E-04 -0.56478950E-04  0.11959814E-03  0.97326656E-03 -0.42202780E-05
 -0.42202780E-05 -0.42202780E-05 -0.26019345E-04 -0.26019345E-04 -0.26019345E-04
  0.84521084E-05  0.84521084E-05  0.84521084E-05
 -0.53526753E-05  0.13783058E-06 -0.32243181E-05 -0.68147770E-05 -0.21977284E-05
  0.13251627E-04  0.62599424E-05 -0.32781162E-05 -0.42202780E-05  0.13652356E-05
  0.13652356E-05  0.13652356E-05  0.38121024E-06  0.38121024E-06  0.38121024E-06
 -0.13323285E-06 -0.13323285E-06 -0.13323285E-06
 -0.53526753E-05  0.13783058E-06 -0.32243181E-05 -0.68147770E-05 -0.21977284E-05
  0.13251627E-04  0.62599424E-05 -0.32781162E-05 -0.42202780E-05  0.13652356E-05
  0.13652356E-05  0.13652356E-05  0.38121024E-06  0.38121024E-06  0.38121024E-06
 -0.13323285E-06 -0.13323285E-06 -0.13323285E-06
 -0.53526753E-05  0.13783058E-06 -0.32243181E-05 -0.68147770E-05 -0.21977284E-05
  0.13251627E-04  0.62599424E-05 -0.32781162E-05 -0.42202780E-05  0.13652356E-05
  0.13652356E-05  0.13652356E-05  0.38121024E-06  0.38121024E-06  0.38121024E-06
 -0.13323285E-06 -0.13323285E-06 -0.13323285E-06
  0.77977107E-05  0.17970634E-04  0.31921145E-05  0.80136453E-05 -0.23379596E-05
  0.22772400E-04  0.14495270E-04  0.45096112E-05 -0.26019345E-04  0.38121024E-06
  0.38121024E-06  0.38121024E-06  0.29902053E-05  0.29902053E-05  0.29902053E-05
 -0.42105400E-06 -0.42105400E-06 -0.42105400E-06
  0.77977107E-05  0.17970634E-04  0.31921145E-05  0.80136453E-05 -0.23379596E-05
  0.22772400E-04  0.14495270E-04  0.45096112E-05 -0.26019345E-04  0.38121024E-06
  0.38121024E-06  0.38121024E-06  0.29902053E-05  0.29902053E-05  0.29902053E-05
 -0.42105400E-06 -0.42105400E-06 -0.42105400E-06
  0.77977107E-05  0.17970634E-04  0.31921145E-05  0.80136453E-05 -0.23379596E-05
  0.22772400E-04  0.14495270E-04  0.45096112E-05 -0.26019345E-04  0.38121024E-06
  0.38121024E-06  0.38121024E-06  0.29902053E-05  0.29902053E-05  0.29902053E-05
 -0.42105400E-06 -0.42105400E-06 -0.42105400E-06
  0.20746385E-05 -0.42189225E-05  0.10090502E-05 -0.57905610E-05  0.69947875E-05
 -0.29915670E-05 -0.53928957E-07  0.12577392E-05  0.84521084E-05 -0.13323285E-06
 -0.13323285E-06 -0.13323285E-06 -0.42105400E-06 -0.42105400E-06 -0.42105400E-06
  0.50937849E-06  0.50937849E-06  0.50937849E-06
  0.20746385E-05 -0.42189225E-05  0.10090502E-05 -0.57905610E-05  0.69947875E-05
 -0.29915670E-05 -0.53928957E-07  0.12577392E-05  0.84521084E-05 -0.13323285E-06
 -0.13323285E-06 -0.13323285E-06 -0.42105400E-06 -0.42105400E-06 -0.42105400E-06
  0.50937849E-06  0.50937849E-06  0.50937849E-06
  0.20746385E-05 -0.42189225E-05  0.10090502E-05 -0.57905610E-05  0.69947875E-05
 -0.29915670E-05 -0.53928957E-07  0.12577392E-05  0.84521084E-05 -0.13323285E-06
 -0.13323285E-06 -0.13323285E-06 -0.42105400E-06 -0.42105400E-06 -0.42105400E-06
  0.50937849E-06  0.50937849E-06  0.50937849E-06

;

# ===========
# Reflections
# ===========

_diffrn_radiation_wavelength        0.710730

_shelx_F_calc_maximum               21.606895

_reflns_d_resolution_high           2.962096
_reflns_d_resolution_low            0.718414
_reflns_limit_h_max                 4
_reflns_limit_h_min                 -4
_reflns_limit_k_max                 7
_reflns_limit_k_min                 -7
_reflns_limit_l_max                 6
_reflns_limit_l_min                 -6
_reflns_number_gt                   98
_reflns_number_total                98
_reflns_threshold_expression        'F>0 & F/u(F)>3.0 & |F_calc|>10^-3'

_reflns_special_details
;
* Specify symmetry and Friedel pair averaging *

. Only reflections which satisfy the threshold expression
  are listed below, and only they are considered observed,
  thus the *_gt, *_all, & *_total data are always the same
;

# ============
# Bond lengths
# ============

loop_
 _geom_bond_atom_site_label_1
 _geom_bond_site_symmetry_1
 _geom_bond_atom_site_label_2
 _geom_bond_site_symmetry_2
 _geom_bond_distance
 _geom_bond_publ_flag
   N  .  H1  .  0.967(14)  yes

# ===========
# Bond Angles
# ===========

loop_
 _geom_angle_atom_site_label_1
 _geom_angle_site_symmetry_1
 _geom_angle_atom_site_label_2
 _geom_angle_site_symmetry_2
 _geom_angle_atom_site_label_3
 _geom_angle_site_symmetry_3
 _geom_angle
 _geom_angle_publ_flag
